2
	Energy:      -0.0157000
Ar 0.0 0.0 0.0 
Ar 2.2 0.0 0.0
